#     Step Nr.          Time[fs]        Kin.[a.u.]          Temp[K]            Pot.[a.u.]        Cons Qty[a.u.]        UsedTime[s]
         0            0.000000         0.029926405       300.000000000        -8.104247771        -8.074321366         0.000000000
         1            0.500000         0.029136120       292.077712642        -8.103444604        -8.074308484       102.336726764
         2            1.000000         0.027099030       271.656717588        -8.101371587        -8.074272557        23.794331827
         3            1.500000         0.024368764       244.286918143        -8.098593290        -8.074224526        23.826509679
         4            2.000000         0.021680165       217.334813404        -8.095860734        -8.074180569        19.669063953
         5            2.500000         0.019704675       197.531323388        -8.093860341        -8.074155666        19.545155479
         6            3.000000         0.018825937       188.722339143        -8.092982913        -8.074156976        19.599468153
         7            3.500000         0.019030901       190.777015674        -8.093212172        -8.074181271        19.670691364
         8            4.000000         0.019954399       200.034708034        -8.094172109        -8.074217710        19.553824223
         9            4.500000         0.021040309       210.920516017        -8.095293476        -8.074253166        19.617485275
        10            5.000000         0.021742288       217.957568583        -8.096018940        -8.074276652        20.954838396
        11            5.500000         0.021694252       217.476028296        -8.095976050        -8.074281798        19.629036813
        12            6.000000         0.020809434       208.606087534        -8.095077390        -8.074267956        19.630984155
        13            6.500000         0.019292862       193.403074205        -8.093532702        -8.074239839        19.540722928
        14            7.000000         0.017571295       176.145060707        -8.091777292        -8.074205997        19.465431520
        15            7.500000         0.016161645       162.013895098        -8.090338194        -8.074176549        19.565821207
        16            8.000000         0.015513981       155.521327186        -8.089674428        -8.074160447        15.339299686
        17            8.500000         0.015872884       159.119184410        -8.090035807        -8.074162923        19.439710945
        18            9.000000         0.017196946       172.392367906        -8.091380848        -8.074183902        15.338143328
        19            9.500000         0.019160789       192.079087335        -8.093378619        -8.074217831        15.323339681
        20           10.000000         0.021241828       212.940659486        -8.095496804        -8.074254976        20.830372127
        21           10.500000         0.022871089       229.273339749        -8.097155079        -8.074283989        19.459397276
        22           11.000000         0.023608442       236.664995600        -8.097903570        -8.074295129        19.447343746
        23           11.500000         0.023290826       233.481030956        -8.097574459        -8.074283632        19.456125712
        24           12.000000         0.022100628       221.549776290        -8.096352987        -8.074252360        19.381434159
        25           12.500000         0.020517427       205.678833325        -8.094729334        -8.074211907        15.263280282
        26           13.000000         0.019156279       192.033884074        -8.093333131        -8.074176851        19.641994959
        27           13.500000         0.018549924       185.955422475        -8.092709227        -8.074159302        19.620659546
        28           14.000000         0.018967518       190.141626918        -8.093131175        -8.074163657        19.695266010
        29           14.500000         0.020345026       203.950585765        -8.094530988        -8.074185962        19.737512080
        30           15.000000         0.022340128       223.950669929        -8.096557439        -8.074217311        21.072147496
        31           15.500000         0.024466335       245.265030900        -8.098714287        -8.074247952        19.701598323
        32           16.000000         0.026244483       263.090235464        -8.100514453        -8.074269970        15.415695034
        33           16.500000         0.027327058       273.942605231        -8.101605685        -8.074278627        19.575729855
        34           17.000000         0.027573452       276.412611112        -8.101846321        -8.074272869        19.636370814
        35           17.500000         0.027068151       271.347172454        -8.101323355        -8.074255204        19.509240811
        36           18.000000         0.026082703       261.468459556        -8.100313674        -8.074230971        19.630792505
        37           18.500000         0.024992047       250.535075826        -8.099199115        -8.074207068        19.557654675
        38           19.000000         0.024166023       242.254522352        -8.098356287        -8.074190264        15.414081098
        39           19.500000         0.023863701       239.223863346        -8.098049132        -8.074185431        15.378038650
        40           20.000000         0.024158527       242.179377003        -8.098352647        -8.074194120        20.926176596
        41           20.500000         0.024915944       249.772171275        -8.099129814        -8.074213871        19.649543633
        42           21.000000         0.025833228       258.967566257        -8.100071772        -8.074238544        19.642949459
        43           21.500000         0.026535432       266.006877548        -8.100795232        -8.074259800        19.594528351
        44           22.000000         0.026703269       267.689375084        -8.100972945        -8.074269677        19.729383128
        45           22.500000         0.026192136       262.565480021        -8.100456006        -8.074263869        19.659469844
        46           23.000000         0.025094058       251.557694775        -8.099338321        -8.074244263        15.479619399
        47           23.500000         0.023707998       237.663002281        -8.097926681        -8.074218683        19.671227760
        48           24.000000         0.022424085       224.792304842        -8.096621281        -8.074197196        19.748699095
        49           24.500000         0.021575557       216.286155631        -8.095762491        -8.074186934        19.655966465
        50           25.000000         0.021331038       213.834953626        -8.095520259        -8.074189221        21.085332096
        51           25.500000         0.021668806       217.220936434        -8.095869513        -8.074200707        19.601632411
        52           26.000000         0.022420747       224.758844292        -8.096637293        -8.074216545        19.713137348
        53           26.500000         0.023344047       234.014549472        -8.097576666        -8.074232619        15.493450913
        54           27.000000         0.024187481       242.469629078        -8.098433429        -8.074245948        15.391809299
        55           27.500000         0.024742173       248.030184981        -8.098996468        -8.074254295        19.777193912
        56           28.000000         0.024879001       249.401839149        -8.099135054        -8.074256053        19.582900309
        57           28.500000         0.024573332       246.337623416        -8.098823954        -8.074250623        19.535474468
        58           29.000000         0.023912202       239.710073029        -8.098151148        -8.074238945        19.494430472
        59           29.500000         0.023077563       231.343154169        -8.097301273        -8.074223710        15.304449824
        60           30.000000         0.022303332       223.581800303        -8.096512321        -8.074208989        21.193245129
        61           30.500000         0.021812535       218.661768142        -8.096011756        -8.074199221        19.708974062
        62           31.000000         0.021750292       218.037800277        -8.095948027        -8.074197735        19.796573989
        63           31.500000         0.022134661       221.890947463        -8.096340011        -8.074205350        19.729749706
        64           32.000000         0.022846290       229.024734409        -8.097065932        -8.074219642        19.757364112
        65           32.500000         0.023666939       237.251412187        -8.097902375        -8.074235435        19.807196024
        66           33.000000         0.024357611       244.175108128        -8.098604415        -8.074246805        19.709273885
        67           33.500000         0.024745585       248.064389050        -8.098995551        -8.074249967        19.595409393
        68           34.000000         0.024779320       248.402575234        -8.099024630        -8.074245310        19.707237246
        69           34.500000         0.024523822       245.841307808        -8.098760639        -8.074236817        19.713890410
        70           35.000000         0.024105195       241.644743239        -8.098334212        -8.074229018        21.467805067
        71           35.500000         0.023645864       237.040139494        -8.097869805        -8.074223941        19.619536340
        72           36.000000         0.023230383       232.875114335        -8.097451608        -8.074221224        19.809300631
        73           36.500000         0.022907033       229.633656772        -8.097126810        -8.074219777        19.799808603
        74           37.000000         0.022699642       227.554652945        -8.096919282        -8.074219640        19.675431081
        75           37.500000         0.022606099       226.616917102        -8.096828069        -8.074221970        15.463667530
        76           38.000000         0.022584468       226.400079394        -8.096812056        -8.074227588        19.778183217
        77           38.500000         0.022545872       226.013172909        -8.096781430        -8.074235558        19.827880597
        78           39.000000         0.022371174       224.261895972        -8.096614231        -8.074243056        19.760188808
        79           39.500000         0.021952450       220.064351434        -8.096199024        -8.074246574        19.747224540
        80           40.000000         0.021243346       212.955871877        -8.095486982        -8.074243636        21.098952233
        81           40.500000         0.020294314       203.442214630        -8.094528465        -8.074234152        15.455584064
        82           41.000000         0.019252947       193.002938054        -8.093473712        -8.074220765        15.505157272
        83           41.500000         0.018324082       183.691441539        -8.092532069        -8.074207987        19.805730066
        84           42.000000         0.017702408       177.459416937        -8.091902836        -8.074200428        19.668043690
        85           42.500000         0.017503951       175.469969505        -8.091704797        -8.074200846        19.748419571
        86           43.000000         0.017725616       177.692072899        -8.091934473        -8.074208856        19.669482137
        87           43.500000         0.018251466       182.963502514        -8.092472491        -8.074221025        19.566313981
        88           44.000000         0.018903273       189.497598649        -8.093135855        -8.074232582        19.621971646
        89           44.500000         0.019509940       195.579185050        -8.093749924        -8.074239985        19.743632616
        90           45.000000         0.019959688       200.087731433        -8.094202307        -8.074242619        16.795013328
        91           45.500000         0.020211724       202.614286663        -8.094453975        -8.074242251        19.667793621
        92           46.000000         0.020274670       203.245296671        -8.094515424        -8.074240754        19.680112869
        93           46.500000         0.020181681       202.313119894        -8.094420123        -8.074238441        19.683801094
        94           47.000000         0.019984205       200.333499554        -8.094218836        -8.074234631        19.580148520
        95           47.500000         0.019757473       198.060610126        -8.093986906        -8.074229432        19.543503712
        96           48.000000         0.019594080       196.422653361        -8.093818681        -8.074224602        19.751905166
        97           48.500000         0.019574102       196.222388201        -8.093796904        -8.074222802        15.489188751
        98           49.000000         0.019725315       197.738233882        -8.093951196        -8.074225881        19.643494551
        99           49.500000         0.020000006       200.491896230        -8.094233264        -8.074233258        19.687946827
       100           50.000000         0.020287141       203.370309104        -8.094529020        -8.074241879        21.125566744
